 Entering Gaussian System, Link 0=g16
 Initial command:
 /public/software/Gaussian16/g16/l1.exe "/tmp/Gau-645576.inp" -scrdir="/tmp/"
 Entering Link 1 = /public/software/Gaussian16/g16/l1.exe PID=    645577.
  
 Copyright (c) 1988,1990,1992,1993,1995,1998,2003,2009,2016,
            Gaussian, Inc.  All Rights Reserved.
  
 This is part of the Gaussian(R) 16 program.  It is based on
 the Gaussian(R) 09 system (copyright 2009, Gaussian, Inc.),
 the Gaussian(R) 03 system (copyright 2003, Gaussian, Inc.),
 the Gaussian(R) 98 system (copyright 1998, Gaussian, Inc.),
 the Gaussian(R) 94 system (copyright 1995, Gaussian, Inc.),
 the Gaussian 92(TM) system (copyright 1992, Gaussian, Inc.),
 the Gaussian 90(TM) system (copyright 1990, Gaussian, Inc.),
 the Gaussian 88(TM) system (copyright 1988, Gaussian, Inc.),
 the Gaussian 86(TM) system (copyright 1986, Carnegie Mellon
 University), and the Gaussian 82(TM) system (copyright 1983,
 Carnegie Mellon University). Gaussian is a federally registered
 trademark of Gaussian, Inc.
  
 This software contains proprietary and confidential information,
 including trade secrets, belonging to Gaussian, Inc.
  
 This software is provided under written license and may be
 used, copied, transmitted, or stored only in accord with that
 written license.
  
 The following legend is applicable only to US Government
 contracts under FAR:
  
                    RESTRICTED RIGHTS LEGEND
  
 Use, reproduction and disclosure by the US Government is
 subject to restrictions as set forth in subparagraphs (a)
 and (c) of the Commercial Computer Software - Restricted
 Rights clause in FAR 52.227-19.
  
 Gaussian, Inc.
 340 Quinnipiac St., Bldg. 40, Wallingford CT 06492
  
  
 ---------------------------------------------------------------
 Warning -- This program may not be used in any manner that
 competes with the business of Gaussian, Inc. or will provide
 assistance to any competitor of Gaussian, Inc.  The licensee
 of this program is prohibited from giving any competitor of
 Gaussian, Inc. access to this program.  By using this program,
 the user acknowledges that Gaussian, Inc. is engaged in the
 business of creating and licensing software in the field of
 computational chemistry and represents and warrants to the
 licensee that it is not a competitor of Gaussian, Inc. and that
 it will not use this program in any manner prohibited above.
 ---------------------------------------------------------------
  

 Cite this work as:
 Gaussian 16, Revision A.03,
 M. J. Frisch, G. W. Trucks, H. B. Schlegel, G. E. Scuseria, 
 M. A. Robb, J. R. Cheeseman, G. Scalmani, V. Barone, 
 G. A. Petersson, H. Nakatsuji, X. Li, M. Caricato, A. V. Marenich, 
 J. Bloino, B. G. Janesko, R. Gomperts, B. Mennucci, H. P. Hratchian, 
 J. V. Ortiz, A. F. Izmaylov, J. L. Sonnenberg, D. Williams-Young, 
 F. Ding, F. Lipparini, F. Egidi, J. Goings, B. Peng, A. Petrone, 
 T. Henderson, D. Ranasinghe, V. G. Zakrzewski, J. Gao, N. Rega, 
 G. Zheng, W. Liang, M. Hada, M. Ehara, K. Toyota, R. Fukuda, 
 J. Hasegawa, M. Ishida, T. Nakajima, Y. Honda, O. Kitao, H. Nakai, 
 T. Vreven, K. Throssell, J. A. Montgomery, Jr., J. E. Peralta, 
 F. Ogliaro, M. J. Bearpark, J. J. Heyd, E. N. Brothers, K. N. Kudin, 
 V. N. Staroverov, T. A. Keith, R. Kobayashi, J. Normand, 
 K. Raghavachari, A. P. Rendell, J. C. Burant, S. S. Iyengar, 
 J. Tomasi, M. Cossi, J. M. Millam, M. Klene, C. Adamo, R. Cammi, 
 J. W. Ochterski, R. L. Martin, K. Morokuma, O. Farkas, 
 J. B. Foresman, and D. J. Fox, Gaussian, Inc., Wallingford CT, 2016.
 
 ******************************************
 Gaussian 16:  ES64L-G16RevA.03 25-Dec-2016
                29-Aug-2019 
 ******************************************
 %mem=100GB
 %nprocshared=24
 Will use up to   24 processors via shared memory.
 ------------------------------------------------------------------
 # m062x/def2tzvp empiricaldispersion=gd3 guess=mix nosymm opt freq
 ------------------------------------------------------------------
 1/18=20,19=15,26=3,38=1/1,3;
 2/9=110,12=2,15=1,17=6,18=5,40=1/2;
 3/5=44,7=101,11=2,25=1,30=1,71=1,74=-55,124=31/1,2,3;
 4/13=-1/1;
 5/5=2,38=5/2;
 6/7=2,8=2,9=2,10=2,28=1/1;
 7/30=1/1,2,3,16;
 1/18=20,19=15,26=3/3(2);
 2/9=110,15=1/2;
 99//99;
 2/9=110,15=1/2;
 3/5=44,7=101,11=2,25=1,30=1,71=1,74=-55,124=31/1,2,3;
 4/5=5,16=3,69=1/1;
 5/5=2,38=5/2;
 7/30=1/1,2,3,16;
 1/18=20,19=15,26=3/3(-5);
 2/9=110,15=1/2;
 6/7=2,8=2,9=2,10=2,19=2,28=1/1;
 99/9=1/99;
 -------------------
 Title Card Required
 -------------------
 Symbolic Z-matrix:
 Charge =  0 Multiplicity = 1
 O                    -4.05405   0.76102   0. 
 O                    -4.49468   2.00531   0. 
 O                    -2.73405   0.76102   0. 
 

 GradGradGradGradGradGradGradGradGradGradGradGradGradGradGradGradGradGrad
 Berny optimization.
 Initialization pass.
                           ----------------------------
                           !    Initial Parameters    !
                           ! (Angstroms and Degrees)  !
 --------------------------                            --------------------------
 ! Name  Definition              Value          Derivative Info.                !
 --------------------------------------------------------------------------------
 ! R1    R(1,2)                  1.32           estimate D2E/DX2                !
 ! R2    R(1,3)                  1.32           estimate D2E/DX2                !
 ! A1    A(2,1,3)              109.5            estimate D2E/DX2                !
 --------------------------------------------------------------------------------
 Trust Radius=3.00D-01 FncErr=1.00D-07 GrdErr=1.00D-06 EigMax=2.50D+02 EigMin=1.00D-04
 Number of steps in this run=     20 maximum allowed number of steps=    100.
 GradGradGradGradGradGradGradGradGradGradGradGradGradGradGradGradGradGrad

                          Input orientation:                          
 ---------------------------------------------------------------------
 Center     Atomic      Atomic             Coordinates (Angstroms)
 Number     Number       Type             X           Y           Z
 ---------------------------------------------------------------------
      1          8           0       -4.054054    0.761024    0.000000
      2          8           0       -4.494679    2.005311    0.000000
      3          8           0       -2.734054    0.761024    0.000000
 ---------------------------------------------------------------------
                    Distance matrix (angstroms):
                    1          2          3
     1  O    0.000000
     2  O    1.320000   0.000000
     3  O    1.320000   2.155934   0.000000
 Symmetry turned off by external request.
 Stoichiometry    O3
 Framework group  C2V[C2(O),SGV(O2)]
 Deg. of freedom     2
 Full point group                 C2V     NOp   4
 Rotational constants (GHZ):          81.6598365          13.5954775          11.6550397
 Standard basis: def2TZVP (5D, 7F)
    93 basis functions,   153 primitive gaussians,   108 cartesian basis functions
    12 alpha electrons       12 beta electrons
       nuclear repulsion energy        67.0230512525 Hartrees.
 NAtoms=    3 NActive=    3 NUniq=    3 SFac= 1.00D+00 NAtFMM=   60 NAOKFM=F Big=F
 Integral buffers will be    131072 words long.
 Raffenetti 2 integral format.
 Two-electron integral symmetry is turned off.
 Nuclear repulsion after empirical dispersion term =       67.0230511732 Hartrees.
 One-electron integrals computed using PRISM.
   1 Symmetry operations used in ECPInt.
 ECPInt:  NShTT=     561 NPrTT=    1896 LenC2=     557 LenP2D=    1633.
 LDataN:  DoStor=T MaxTD1= 6 Len=  172
 NBasis=    93 RedAO= T EigKep=  3.63D-03  NBF=    93
 NBsUse=    93 1.00D-06 EigRej= -1.00D+00 NBFU=    93
 ExpMin= 1.75D-01 ExpMax= 2.70D+04 ExpMxC= 9.22D+02 IAcc=3 IRadAn=         5 AccDes= 0.00D+00
 Harris functional with IExCor= 1009 and IRadAn=       5 diagonalized for initial guess.
 HarFok:  IExCor= 1009 AccDes= 0.00D+00 IRadAn=         5 IDoV= 1 UseB2=F ITyADJ=14
 ICtDFT=  3500011 ScaDFX=  1.000000  1.000000  1.000000  1.000000
 FoFCou: FMM=F IPFlag=           0 FMFlag=      100000 FMFlg1=           0
         NFxFlg=           0 DoJE=T BraDBF=F KetDBF=T FulRan=T
         wScrn=  0.000000 ICntrl=       500 IOpCl=  0 I1Cent=   200000004 NGrid=           0
         NMat0=    1 NMatS0=      1 NMatT0=    0 NMatD0=    1 NMtDS0=    0 NMtDT0=    0
 Symmetry not used in FoFCou.
 Mixing orbitals, IMix= 1 IMixAn=  0 NRI=1 NE=   12 Coef=  7.07106781D-01  7.07106781D-01
 Keep R1 ints in memory in canonical form, NReq=31975627.
 Requested convergence on RMS density matrix=1.00D-08 within 128 cycles.
 Requested convergence on MAX density matrix=1.00D-06.
 Requested convergence on             energy=1.00D-06.
 No special actions if energy rises.
 Integral accuracy reduced to 1.0D-05 until final iterations.
 Initial convergence to 1.0D-05 achieved.  Increase integral accuracy.
 SCF Done:  E(RM062X) =  -225.387946215     A.U. after   22 cycles
            NFock= 22  Conv=0.30D-08     -V/T= 2.0053

 **********************************************************************

            Population analysis using the SCF density.

 **********************************************************************

 Alpha  occ. eigenvalues --  -19.94602 -19.76287 -19.76283  -1.46468  -1.18427
 Alpha  occ. eigenvalues --   -0.92664  -0.67659  -0.66996  -0.66520  -0.44911
 Alpha  occ. eigenvalues --   -0.43246  -0.41950
 Alpha virt. eigenvalues --   -0.16540   0.09786   0.14153   0.33708   0.40261
 Alpha virt. eigenvalues --    0.40802   0.40894   0.47175   0.48500   0.50918
 Alpha virt. eigenvalues --    0.52265   0.53081   0.59412   0.71583   0.75853
 Alpha virt. eigenvalues --    1.19084   1.20264   1.20418   1.49360   1.51071
 Alpha virt. eigenvalues --    1.52526   1.55177   1.82253   1.82410   1.91674
 Alpha virt. eigenvalues --    2.00840   2.01097   2.12886   2.15716   2.25705
 Alpha virt. eigenvalues --    2.41596   2.50753   2.60374   2.60456   2.63706
 Alpha virt. eigenvalues --    2.75550   2.78127   2.79459   2.81224   2.90966
 Alpha virt. eigenvalues --    4.09301   4.14859   4.49997   4.50723   4.50762
 Alpha virt. eigenvalues --    4.62769   4.64394   4.67121   4.81730   5.09191
 Alpha virt. eigenvalues --    5.09486   5.09624   5.10097   5.12646   5.28880
 Alpha virt. eigenvalues --    5.31079   5.56883   5.84325   6.02376   6.03254
 Alpha virt. eigenvalues --    6.12809   6.14131   6.17461   6.18394   6.29041
 Alpha virt. eigenvalues --    6.29232   6.29246   6.30873   6.31696   6.39290
 Alpha virt. eigenvalues --    6.84376   6.85018   6.89505   6.99018   7.21328
 Alpha virt. eigenvalues --    7.32745   8.17750   8.46670  43.03118  43.38233
 Alpha virt. eigenvalues --   43.88728
          Condensed to atoms (all electrons):
               1          2          3
     1  O    7.414826   0.153672   0.153637
     2  O    0.153672   8.092746  -0.107492
     3  O    0.153637  -0.107492   8.092795
 Mulliken charges:
               1
     1  O    0.277865
     2  O   -0.138926
     3  O   -0.138940
 Sum of Mulliken charges =  -0.00000
 Mulliken charges with hydrogens summed into heavy atoms:
               1
     1  O    0.277865
     2  O   -0.138926
     3  O   -0.138940
 Electronic spatial extent (au):  <R**2>=           1442.3046
 Charge=             -0.0000 electrons
 Dipole moment (field-independent basis, Debye):
    X=             -0.4653    Y=             -0.6583    Z=              0.0000  Tot=              0.8061
 Quadrupole moment (field-independent basis, Debye-Ang):
   XX=            -13.2674   YY=            -17.7832   ZZ=            -14.8168
   XY=              2.6796   XZ=              0.0000   YZ=              0.0000
 Traceless Quadrupole moment (field-independent basis, Debye-Ang):
   XX=              2.0217   YY=             -2.4941   ZZ=              0.4723
   XY=              2.6796   XZ=              0.0000   YZ=              0.0000
 Octapole moment (field-independent basis, Debye-Ang**2):
  XXX=            170.0914  YYY=            -60.0324  ZZZ=              0.0000  XYY=             67.0896
  XXY=            -30.8896  XXZ=             -0.0000  XZZ=             55.5466  YZZ=            -17.6736
  YYZ=              0.0000  XYZ=             -0.0000
 Hexadecapole moment (field-independent basis, Debye-Ang**3):
 XXXX=          -1398.4999 YYYY=           -182.4930 ZZZZ=            -10.6562 XXXY=            286.1319
 XXXZ=              0.0000 YYYX=            239.4383 YYYZ=              0.0000 ZZZX=             -0.0000
 ZZZY=              0.0000 XXYY=           -295.8898 XXZZ=           -220.7008 YYZZ=            -30.0695
 XXYZ=              0.0000 YYXZ=             -0.0000 ZZXY=             71.1619
 N-N= 6.702305117324D+01 E-N=-6.661712221189D+02  KE= 2.241936124684D+02
   1 Symmetry operations used in ECPInt.
 ECPInt:  NShTT=     561 NPrTT=    1896 LenC2=     557 LenP2D=    1633.
 LDataN:  DoStor=T MaxTD1= 7 Len=  274
 Calling FoFJK, ICntrl=      2127 FMM=F ISym2X=0 I1Cent= 0 IOpClX= 0 NMat=1 NMatS=1 NMatT=0.
 -------------------------------------------------------------------
 Center     Atomic                   Forces (Hartrees/Bohr)
 Number     Number              X              Y              Z
 -------------------------------------------------------------------
      1        8           0.076437748    0.108146683    0.000000016
      2        8           0.006059176   -0.085373279   -0.000000006
      3        8          -0.082496924   -0.022773405   -0.000000010
 -------------------------------------------------------------------
 Cartesian Forces:  Max     0.108146683 RMS     0.059803489

 GradGradGradGradGradGradGradGradGradGradGradGradGradGradGradGradGradGrad
 Berny optimization.
 FormGI is forming the generalized inverse of G from B-inverse, IUseBI=4.
 Internal  Forces:  Max     0.082499580 RMS     0.074923758
 Search for a local minimum.
 Step number   1 out of a maximum of   20
 All quantities printed in internal units (Hartrees-Bohrs-Radians)
 Mixed Optimization -- RFO/linear search
 Second derivative matrix not updated -- first step.
 The second derivative matrix:
                          R1        R2        A1
           R1           0.61931
           R2           0.00000   0.61931
           A1           0.00000   0.00000   0.25000
 ITU=  0
     Eigenvalues ---    0.25000   0.61931   0.61931
 RFO step:  Lambda=-3.23253354D-02 EMin= 2.50000000D-01
 Linear search not attempted -- first point.
 Iteration  1 RMS(Cart)=  0.13461311 RMS(Int)=  0.01180671
 Iteration  2 RMS(Cart)=  0.01349745 RMS(Int)=  0.00003311
 Iteration  3 RMS(Cart)=  0.00002923 RMS(Int)=  0.00000000
 Iteration  4 RMS(Cart)=  0.00000000 RMS(Int)=  0.00000000
 Variable       Old X    -DE/DX   Delta X   Delta X   Delta X     New X
                                 (Linear)    (Quad)   (Total)
    R1        2.49444  -0.08250   0.00000  -0.12660  -0.12660   2.36784
    R2        2.49444  -0.08250   0.00000  -0.12660  -0.12660   2.36784
    A1        1.91114   0.05682   0.00000   0.20127   0.20127   2.11240
         Item               Value     Threshold  Converged?
 Maximum Force            0.082500     0.000450     NO 
 RMS     Force            0.074924     0.000300     NO 
 Maximum Displacement     0.149307     0.001800     NO 
 RMS     Displacement     0.130773     0.001200     NO 
 Predicted change in Energy=-1.733551D-02
 GradGradGradGradGradGradGradGradGradGradGradGradGradGradGradGradGradGrad

                          Input orientation:                          
 ---------------------------------------------------------------------
 Center     Atomic      Atomic             Coordinates (Angstroms)
 Number     Number       Type             X           Y           Z
 ---------------------------------------------------------------------
      1          8           0       -3.998215    0.840034    0.000000
      2          8           0       -4.533024    1.973174    0.000000
      3          8           0       -2.751549    0.714152    0.000000
 ---------------------------------------------------------------------
                    Distance matrix (angstroms):
                    1          2          3
     1  O    0.000000
     2  O    1.253007   0.000000
     3  O    1.253004   2.181464   0.000000
 Symmetry turned off by external request.
 Stoichiometry    O3
 Framework group  CS[SG(O3)]
 Deg. of freedom     3
 Full point group                 CS      NOp   2
 Rotational constants (GHZ):         124.6147755          13.2791118          12.0003400
 Standard basis: def2TZVP (5D, 7F)
    93 basis functions,   153 primitive gaussians,   108 cartesian basis functions
    12 alpha electrons       12 beta electrons
       nuclear repulsion energy        69.5828061865 Hartrees.
 NAtoms=    3 NActive=    3 NUniq=    3 SFac= 1.00D+00 NAtFMM=   60 NAOKFM=F Big=F
 Integral buffers will be    131072 words long.
 Raffenetti 2 integral format.
 Two-electron integral symmetry is turned off.
 Nuclear repulsion after empirical dispersion term =       69.5828061007 Hartrees.
 One-electron integrals computed using PRISM.
   1 Symmetry operations used in ECPInt.
 ECPInt:  NShTT=     561 NPrTT=    1896 LenC2=     557 LenP2D=    1641.
 LDataN:  DoStor=T MaxTD1= 6 Len=  172
 NBasis=    93 RedAO= T EigKep=  2.45D-03  NBF=    93
 NBsUse=    93 1.00D-06 EigRej= -1.00D+00 NBFU=    93
 Initial guess from the checkpoint file:  "/tmp/Gau-645577.chk"
 B after Tr=     0.000000    0.000000    0.000000
         Rot=    1.000000   -0.000000   -0.000000   -0.000000 Ang=   0.00 deg.
 ExpMin= 1.75D-01 ExpMax= 2.70D+04 ExpMxC= 9.22D+02 IAcc=2 IRadAn=         4 AccDes= 0.00D+00
 Harris functional with IExCor= 1009 and IRadAn=       4 diagonalized for initial guess.
 HarFok:  IExCor= 1009 AccDes= 0.00D+00 IRadAn=         4 IDoV= 1 UseB2=F ITyADJ=14
 ICtDFT=  3500011 ScaDFX=  1.000000  1.000000  1.000000  1.000000
 FoFCou: FMM=F IPFlag=           0 FMFlag=      100000 FMFlg1=           0
         NFxFlg=           0 DoJE=T BraDBF=F KetDBF=T FulRan=T
         wScrn=  0.000000 ICntrl=       500 IOpCl=  0 I1Cent=   200000004 NGrid=           0
         NMat0=    1 NMatS0=      1 NMatT0=    0 NMatD0=    1 NMtDS0=    0 NMtDT0=    0
 Symmetry not used in FoFCou.
 Keep R1 ints in memory in canonical form, NReq=31975627.
 Requested convergence on RMS density matrix=1.00D-08 within 128 cycles.
 Requested convergence on MAX density matrix=1.00D-06.
 Requested convergence on             energy=1.00D-06.
 No special actions if energy rises.
 Integral accuracy reduced to 1.0D-05 until final iterations.
 Initial convergence to 1.0D-05 achieved.  Increase integral accuracy.
 SCF Done:  E(RM062X) =  -225.406087563     A.U. after   14 cycles
            NFock= 14  Conv=0.92D-08     -V/T= 2.0041
   1 Symmetry operations used in ECPInt.
 ECPInt:  NShTT=     561 NPrTT=    1896 LenC2=     557 LenP2D=    1641.
 LDataN:  DoStor=T MaxTD1= 7 Len=  274
 Calling FoFJK, ICntrl=      2127 FMM=F ISym2X=0 I1Cent= 0 IOpClX= 0 NMat=1 NMatS=1 NMatT=0.
 -------------------------------------------------------------------
 Center     Atomic                   Forces (Hartrees/Bohr)
 Number     Number              X              Y              Z
 -------------------------------------------------------------------
      1        8           0.006055011    0.008591036    0.000000000
      2        8           0.024091231   -0.023471460   -0.000000000
      3        8          -0.030146242    0.014880424   -0.000000000
 -------------------------------------------------------------------
 Cartesian Forces:  Max     0.030146242 RMS     0.016234356

 GradGradGradGradGradGradGradGradGradGradGradGradGradGradGradGradGradGrad
 Berny optimization.
 Using GEDIIS/GDIIS optimizer.
 FormGI is forming the generalized inverse of G from B-inverse, IUseBI=4.
 Internal  Forces:  Max     0.031507359 RMS     0.030339042
 Search for a local minimum.
 Step number   2 out of a maximum of   20
 All quantities printed in internal units (Hartrees-Bohrs-Radians)
 Mixed Optimization -- RFO/linear search
 Update second derivatives using D2CorX and points    1    2
 DE= -1.81D-02 DEPred=-1.73D-02 R= 1.05D+00
 TightC=F SS=  1.41D+00  RLast= 2.69D-01 DXNew= 5.0454D-01 8.0813D-01
 Trust test= 1.05D+00 RLast= 2.69D-01 DXMaxT set to 5.05D-01
 The second derivative matrix:
                          R1        R2        A1
           R1           0.50105
           R2          -0.11824   0.50110
           A1          -0.01256  -0.01261   0.40499
 ITU=  1  0
 Use linear search instead of GDIIS.
     Eigenvalues ---    0.37295   0.41488   0.61931
 RFO step:  Lambda=-7.07393163D-03 EMin= 3.72950676D-01
 Quartic linear search produced a step of  0.06717.
 Iteration  1 RMS(Cart)=  0.09529615 RMS(Int)=  0.00206762
 Iteration  2 RMS(Cart)=  0.00163734 RMS(Int)=  0.00000198
 Iteration  3 RMS(Cart)=  0.00000239 RMS(Int)=  0.00000000
 Iteration  4 RMS(Cart)=  0.00000000 RMS(Int)=  0.00000000
 Variable       Old X    -DE/DX   Delta X   Delta X   Delta X     New X
                                 (Linear)    (Quad)   (Total)
    R1        2.36784  -0.03151  -0.00850  -0.07329  -0.08179   2.28605
    R2        2.36784  -0.03149  -0.00850  -0.07326  -0.08176   2.28607
    A1        2.11240  -0.02788   0.01352  -0.08830  -0.07478   2.03762
         Item               Value     Threshold  Converged?
 Maximum Force            0.031507     0.000450     NO 
 RMS     Force            0.030339     0.000300     NO 
 Maximum Displacement     0.100037     0.001800     NO 
 RMS     Displacement     0.094913     0.001200     NO 
 Predicted change in Energy=-3.697587D-03
 GradGradGradGradGradGradGradGradGradGradGradGradGradGradGradGradGradGrad

                          Input orientation:                          
 ---------------------------------------------------------------------
 Center     Atomic      Atomic             Coordinates (Angstroms)
 Number     Number       Type             X           Y           Z
 ---------------------------------------------------------------------
      1          8           0       -4.005011    0.830426    0.000000
      2          8           0       -4.480086    1.942965    0.000000
      3          8           0       -2.797691    0.753968    0.000000
 ---------------------------------------------------------------------
                    Distance matrix (angstroms):
                    1          2          3
     1  O    0.000000
     2  O    1.209726   0.000000
     3  O    1.209739   2.060138   0.000000
 Symmetry turned off by external request.
 Stoichiometry    O3
 Framework group  CS[SG(O3)]
 Deg. of freedom     3
 Full point group                 CS      NOp   2
 Rotational constants (GHZ):         117.7759725          14.8892481          13.2182019
 Standard basis: def2TZVP (5D, 7F)
    93 basis functions,   153 primitive gaussians,   108 cartesian basis functions
    12 alpha electrons       12 beta electrons
       nuclear repulsion energy        72.4308110774 Hartrees.
 NAtoms=    3 NActive=    3 NUniq=    3 SFac= 1.00D+00 NAtFMM=   60 NAOKFM=F Big=F
 Integral buffers will be    131072 words long.
 Raffenetti 2 integral format.
 Two-electron integral symmetry is turned off.
 Nuclear repulsion after empirical dispersion term =       72.4308110230 Hartrees.
 One-electron integrals computed using PRISM.
   1 Symmetry operations used in ECPInt.
 ECPInt:  NShTT=     561 NPrTT=    1896 LenC2=     557 LenP2D=    1651.
 LDataN:  DoStor=T MaxTD1= 6 Len=  172
 NBasis=    93 RedAO= T EigKep=  1.63D-03  NBF=    93
 NBsUse=    93 1.00D-06 EigRej= -1.00D+00 NBFU=    93
 Initial guess from the checkpoint file:  "/tmp/Gau-645577.chk"
 B after Tr=     0.000000    0.000000    0.000000
         Rot=    1.000000   -0.000000   -0.000000   -0.000000 Ang=   0.00 deg.
 ExpMin= 1.75D-01 ExpMax= 2.70D+04 ExpMxC= 9.22D+02 IAcc=2 IRadAn=         4 AccDes= 0.00D+00
 Harris functional with IExCor= 1009 and IRadAn=       4 diagonalized for initial guess.
 HarFok:  IExCor= 1009 AccDes= 0.00D+00 IRadAn=         4 IDoV= 1 UseB2=F ITyADJ=14
 ICtDFT=  3500011 ScaDFX=  1.000000  1.000000  1.000000  1.000000
 FoFCou: FMM=F IPFlag=           0 FMFlag=      100000 FMFlg1=           0
         NFxFlg=           0 DoJE=T BraDBF=F KetDBF=T FulRan=T
         wScrn=  0.000000 ICntrl=       500 IOpCl=  0 I1Cent=   200000004 NGrid=           0
         NMat0=    1 NMatS0=      1 NMatT0=    0 NMatD0=    1 NMtDS0=    0 NMtDT0=    0
 Symmetry not used in FoFCou.
 Keep R1 ints in memory in canonical form, NReq=31975627.
 Requested convergence on RMS density matrix=1.00D-08 within 128 cycles.
 Requested convergence on MAX density matrix=1.00D-06.
 Requested convergence on             energy=1.00D-06.
 No special actions if energy rises.
 Integral accuracy reduced to 1.0D-05 until final iterations.
 Initial convergence to 1.0D-05 achieved.  Increase integral accuracy.
 SCF Done:  E(RM062X) =  -225.406676845     A.U. after   13 cycles
            NFock= 13  Conv=0.69D-08     -V/T= 2.0028
   1 Symmetry operations used in ECPInt.
 ECPInt:  NShTT=     561 NPrTT=    1896 LenC2=     557 LenP2D=    1651.
 LDataN:  DoStor=T MaxTD1= 7 Len=  274
 Calling FoFJK, ICntrl=      2127 FMM=F ISym2X=0 I1Cent= 0 IOpClX= 0 NMat=1 NMatS=1 NMatT=0.
 -------------------------------------------------------------------
 Center     Atomic                   Forces (Hartrees/Bohr)
 Number     Number              X              Y              Z
 -------------------------------------------------------------------
      1        8          -0.010286918   -0.014577484    0.000000000
      2        8          -0.021573787    0.026172985   -0.000000000
      3        8           0.031860705   -0.011595501   -0.000000000
 -------------------------------------------------------------------
 Cartesian Forces:  Max     0.031860705 RMS     0.017056564

 GradGradGradGradGradGradGradGradGradGradGradGradGradGradGradGradGradGrad
 Berny optimization.
 Using GEDIIS/GDIIS optimizer.
 FormGI is forming the generalized inverse of G from B-inverse, IUseBI=4.
 Internal  Forces:  Max     0.032543194 RMS     0.029410203
 Search for a local minimum.
 Step number   3 out of a maximum of   20
 All quantities printed in internal units (Hartrees-Bohrs-Radians)
 Mixed Optimization -- RFO/linear search
 Update second derivatives using D2CorX and points    1    2    3
 DE= -5.89D-04 DEPred=-3.70D-03 R= 1.59D-01
 Trust test= 1.59D-01 RLast= 1.38D-01 DXMaxT set to 5.05D-01
 The second derivative matrix:
                          R1        R2        A1
           R1           0.65339
           R2           0.03403   0.65330
           A1           0.10467   0.10458   0.43618
 ITU=  0  1  0
 Use linear search instead of GDIIS.
     Eigenvalues ---    0.36769   0.61931   0.75587
 RFO step:  Lambda=-3.01723838D-05 EMin= 3.67693147D-01
 Quartic linear search produced a step of -0.44310.
 Iteration  1 RMS(Cart)=  0.03967657 RMS(Int)=  0.00028453
 Iteration  2 RMS(Cart)=  0.00027408 RMS(Int)=  0.00000005
 Iteration  3 RMS(Cart)=  0.00000005 RMS(Int)=  0.00000000
 Variable       Old X    -DE/DX   Delta X   Delta X   Delta X     New X
                                 (Linear)    (Quad)   (Total)
    R1        2.28605   0.03254   0.03624   0.00307   0.03932   2.32537
    R2        2.28607   0.03253   0.03623   0.00308   0.03930   2.32538
    A1        2.03762   0.02186   0.03314  -0.00792   0.02522   2.06284
         Item               Value     Threshold  Converged?
 Maximum Force            0.032543     0.000450     NO 
 RMS     Force            0.029410     0.000300     NO 
 Maximum Displacement     0.040618     0.001800     NO 
 RMS     Displacement     0.039809     0.001200     NO 
 Predicted change in Energy=-1.700820D-03
 GradGradGradGradGradGradGradGradGradGradGradGradGradGradGradGradGradGrad

                          Input orientation:                          
 ---------------------------------------------------------------------
 Center     Atomic      Atomic             Coordinates (Angstroms)
 Number     Number       Type             X           Y           Z
 ---------------------------------------------------------------------
      1          8           0       -4.004103    0.831707    0.000000
      2          8           0       -4.501580    1.957195    0.000000
      3          8           0       -2.777104    0.738457    0.000000
 ---------------------------------------------------------------------
                    Distance matrix (angstroms):
                    1          2          3
     1  O    0.000000
     2  O    1.230531   0.000000
     3  O    1.230538   2.111667   0.000000
 Symmetry turned off by external request.
 Stoichiometry    O3
 Framework group  CS[SG(O3)]
 Deg. of freedom     3
 Full point group                 CS      NOp   2
 Rotational constants (GHZ):         118.6548863          14.1714476          12.6594739
 Standard basis: def2TZVP (5D, 7F)
    93 basis functions,   153 primitive gaussians,   108 cartesian basis functions
    12 alpha electrons       12 beta electrons
       nuclear repulsion energy        71.0831280085 Hartrees.
 NAtoms=    3 NActive=    3 NUniq=    3 SFac= 1.00D+00 NAtFMM=   60 NAOKFM=F Big=F
 Integral buffers will be    131072 words long.
 Raffenetti 2 integral format.
 Two-electron integral symmetry is turned off.
 Nuclear repulsion after empirical dispersion term =       71.0831279422 Hartrees.
 One-electron integrals computed using PRISM.
   1 Symmetry operations used in ECPInt.
 ECPInt:  NShTT=     561 NPrTT=    1896 LenC2=     557 LenP2D=    1647.
 LDataN:  DoStor=T MaxTD1= 6 Len=  172
 NBasis=    93 RedAO= T EigKep=  1.99D-03  NBF=    93
 NBsUse=    93 1.00D-06 EigRej= -1.00D+00 NBFU=    93
 Initial guess from the checkpoint file:  "/tmp/Gau-645577.chk"
 B after Tr=    -0.000000   -0.000000    0.000000
         Rot=    1.000000    0.000000    0.000000    0.000000 Ang=   0.00 deg.
 ExpMin= 1.75D-01 ExpMax= 2.70D+04 ExpMxC= 9.22D+02 IAcc=2 IRadAn=         4 AccDes= 0.00D+00
 Harris functional with IExCor= 1009 and IRadAn=       4 diagonalized for initial guess.
 HarFok:  IExCor= 1009 AccDes= 0.00D+00 IRadAn=         4 IDoV= 1 UseB2=F ITyADJ=14
 ICtDFT=  3500011 ScaDFX=  1.000000  1.000000  1.000000  1.000000
 FoFCou: FMM=F IPFlag=           0 FMFlag=      100000 FMFlg1=           0
         NFxFlg=           0 DoJE=T BraDBF=F KetDBF=T FulRan=T
         wScrn=  0.000000 ICntrl=       500 IOpCl=  0 I1Cent=   200000004 NGrid=           0
         NMat0=    1 NMatS0=      1 NMatT0=    0 NMatD0=    1 NMtDS0=    0 NMtDT0=    0
 Symmetry not used in FoFCou.
 Keep R1 ints in memory in canonical form, NReq=31975627.
 Requested convergence on RMS density matrix=1.00D-08 within 128 cycles.
 Requested convergence on MAX density matrix=1.00D-06.
 Requested convergence on             energy=1.00D-06.
 No special actions if energy rises.
 Integral accuracy reduced to 1.0D-05 until final iterations.
 Initial convergence to 1.0D-05 achieved.  Increase integral accuracy.
 SCF Done:  E(RM062X) =  -225.408183001     A.U. after   12 cycles
            NFock= 12  Conv=0.68D-08     -V/T= 2.0035
   1 Symmetry operations used in ECPInt.
 ECPInt:  NShTT=     561 NPrTT=    1896 LenC2=     557 LenP2D=    1647.
 LDataN:  DoStor=T MaxTD1= 7 Len=  274
 Calling FoFJK, ICntrl=      2127 FMM=F ISym2X=0 I1Cent= 0 IOpClX= 0 NMat=1 NMatS=1 NMatT=0.
 -------------------------------------------------------------------
 Center     Atomic                   Forces (Hartrees/Bohr)
 Number     Number              X              Y              Z
 -------------------------------------------------------------------
      1        8           0.000848611    0.001191029    0.000000000
      2        8          -0.000268964   -0.000705120   -0.000000000
      3        8          -0.000579647   -0.000485909   -0.000000000
 -------------------------------------------------------------------
 Cartesian Forces:  Max     0.001191029 RMS     0.000603722

 GradGradGradGradGradGradGradGradGradGradGradGradGradGradGradGradGradGrad
 Berny optimization.
 Using GEDIIS/GDIIS optimizer.
 FormGI is forming the generalized inverse of G from B-inverse, IUseBI=4.
 Internal  Forces:  Max     0.001231873 RMS     0.000836236
 Search for a local minimum.
 Step number   4 out of a maximum of   20
 All quantities printed in internal units (Hartrees-Bohrs-Radians)
 Mixed Optimization -- En-DIIS/RFO-DIIS
 Update second derivatives using D2CorX and points    1    2    3    4
 DE= -1.51D-03 DEPred=-1.70D-03 R= 8.86D-01
 TightC=F SS=  1.41D+00  RLast= 6.10D-02 DXNew= 8.4853D-01 1.8313D-01
 Trust test= 8.86D-01 RLast= 6.10D-02 DXMaxT set to 5.05D-01
 The second derivative matrix:
                          R1        R2        A1
           R1           0.69606
           R2           0.07675   0.69608
           A1           0.10692   0.10686   0.48460
 ITU=  1  0  1  0
 Use linear search instead of GDIIS.
     Eigenvalues ---    0.41987   0.61931   0.83756
 RFO step:  Lambda=-4.89946205D-06 EMin= 4.19865006D-01
 Quartic linear search produced a step of -0.00393.
 Iteration  1 RMS(Cart)=  0.00182943 RMS(Int)=  0.00000233
 Iteration  2 RMS(Cart)=  0.00000258 RMS(Int)=  0.00000000
 Iteration  3 RMS(Cart)=  0.00000000 RMS(Int)=  0.00000000
 Variable       Old X    -DE/DX   Delta X   Delta X   Delta X     New X
                                 (Linear)    (Quad)   (Total)
    R1        2.32537  -0.00054  -0.00015  -0.00097  -0.00112   2.32424
    R2        2.32538  -0.00054  -0.00015  -0.00098  -0.00113   2.32425
    A1        2.06284   0.00123  -0.00010   0.00313   0.00303   2.06586
         Item               Value     Threshold  Converged?
 Maximum Force            0.001232     0.000450     NO 
 RMS     Force            0.000836     0.000300     NO 
 Maximum Displacement     0.001957     0.001800     NO 
 RMS     Displacement     0.001828     0.001200     NO 
 Predicted change in Energy=-2.470571D-06
 GradGradGradGradGradGradGradGradGradGradGradGradGradGradGradGradGradGrad

                          Input orientation:                          
 ---------------------------------------------------------------------
 Center     Atomic      Atomic             Coordinates (Angstroms)
 Number     Number       Type             X           Y           Z
 ---------------------------------------------------------------------
      1          8           0       -4.003369    0.832743    0.000000
      2          8           0       -4.502308    1.956933    0.000000
      3          8           0       -2.777111    0.737684    0.000000
 ---------------------------------------------------------------------
                    Distance matrix (angstroms):
                    1          2          3
     1  O    0.000000
     2  O    1.229936   0.000000
     3  O    1.229938   2.112551   0.000000
 Symmetry turned off by external request.
 Stoichiometry    O3
 Framework group  CS[SG(O3)]
 Deg. of freedom     3
 Full point group                 CS      NOp   2
 Rotational constants (GHZ):         119.3732168          14.1595913          12.6581324
 Standard basis: def2TZVP (5D, 7F)
    93 basis functions,   153 primitive gaussians,   108 cartesian basis functions
    12 alpha electrons       12 beta electrons
       nuclear repulsion energy        71.1031582365 Hartrees.
 NAtoms=    3 NActive=    3 NUniq=    3 SFac= 1.00D+00 NAtFMM=   60 NAOKFM=F Big=F
 Integral buffers will be    131072 words long.
 Raffenetti 2 integral format.
 Two-electron integral symmetry is turned off.
 Nuclear repulsion after empirical dispersion term =       71.1031581700 Hartrees.
 One-electron integrals computed using PRISM.
   1 Symmetry operations used in ECPInt.
 ECPInt:  NShTT=     561 NPrTT=    1896 LenC2=     557 LenP2D=    1647.
 LDataN:  DoStor=T MaxTD1= 6 Len=  172
 NBasis=    93 RedAO= T EigKep=  1.98D-03  NBF=    93
 NBsUse=    93 1.00D-06 EigRej= -1.00D+00 NBFU=    93
 Initial guess from the checkpoint file:  "/tmp/Gau-645577.chk"
 B after Tr=    -0.000000   -0.000000    0.000000
         Rot=    1.000000    0.000000    0.000000    0.000000 Ang=   0.00 deg.
 Keep R1 ints in memory in canonical form, NReq=31975627.
 Requested convergence on RMS density matrix=1.00D-08 within 128 cycles.
 Requested convergence on MAX density matrix=1.00D-06.
 Requested convergence on             energy=1.00D-06.
 No special actions if energy rises.
 SCF Done:  E(RM062X) =  -225.408184939     A.U. after    9 cycles
            NFock=  9  Conv=0.28D-08     -V/T= 2.0035
   1 Symmetry operations used in ECPInt.
 ECPInt:  NShTT=     561 NPrTT=    1896 LenC2=     557 LenP2D=    1647.
 LDataN:  DoStor=T MaxTD1= 7 Len=  274
 Calling FoFJK, ICntrl=      2127 FMM=F ISym2X=0 I1Cent= 0 IOpClX= 0 NMat=1 NMatS=1 NMatT=0.
 -------------------------------------------------------------------
 Center     Atomic                   Forces (Hartrees/Bohr)
 Number     Number              X              Y              Z
 -------------------------------------------------------------------
      1        8          -0.000175455   -0.000252222   -0.000000000
      2        8           0.000069012    0.000138151   -0.000000000
      3        8           0.000106443    0.000114070    0.000000000
 -------------------------------------------------------------------
 Cartesian Forces:  Max     0.000252222 RMS     0.000125871

 GradGradGradGradGradGradGradGradGradGradGradGradGradGradGradGradGradGrad
 Berny optimization.
 Using GEDIIS/GDIIS optimizer.
 FormGI is forming the generalized inverse of G from B-inverse, IUseBI=4.
 Internal  Forces:  Max     0.000280161 RMS     0.000180388
 Search for a local minimum.
 Step number   5 out of a maximum of   20
 All quantities printed in internal units (Hartrees-Bohrs-Radians)
 Mixed Optimization -- En-DIIS/RFO-DIIS
 Swapping is turned off.
 Update second derivatives using D2CorX and points    2    3    4    5
 DE= -1.94D-06 DEPred=-2.47D-06 R= 7.85D-01
 TightC=F SS=  1.41D+00  RLast= 3.42D-03 DXNew= 8.4853D-01 1.0265D-02
 Trust test= 7.85D-01 RLast= 3.42D-03 DXMaxT set to 5.05D-01
 The second derivative matrix:
                          R1        R2        A1
           R1           0.70315
           R2           0.08364   0.70275
           A1           0.08294   0.08339   0.56170
 ITU=  1  1  0  1
     Eigenvalues ---    0.51143   0.61931   0.83686
 En-DIIS/RFO-DIIS/Sim-DIIS IScMMF=       -3 using points:     5    4
 RFO step:  Lambda=-1.90651816D-07.
 DidBck=F Rises=F RFO-DIIS coefs:    0.82183    0.17817
 Iteration  1 RMS(Cart)=  0.00033517 RMS(Int)=  0.00000008
 Iteration  2 RMS(Cart)=  0.00000009 RMS(Int)=  0.00000000
 Variable       Old X    -DE/DX   Delta X   Delta X   Delta X     New X
                                 (Linear)    (Quad)   (Total)
    R1        2.32424   0.00010   0.00020  -0.00002   0.00018   2.32443
    R2        2.32425   0.00010   0.00020  -0.00002   0.00018   2.32443
    A1        2.06586  -0.00028  -0.00054  -0.00001  -0.00055   2.06531
         Item               Value     Threshold  Converged?
 Maximum Force            0.000280     0.000450     YES
 RMS     Force            0.000180     0.000300     YES
 Maximum Displacement     0.000352     0.001800     YES
 RMS     Displacement     0.000335     0.001200     YES
 Predicted change in Energy=-9.532591D-08
 Optimization completed.
    -- Stationary point found.
                           ----------------------------
                           !   Optimized Parameters   !
                           ! (Angstroms and Degrees)  !
 --------------------------                            --------------------------
 ! Name  Definition              Value          Derivative Info.                !
 --------------------------------------------------------------------------------
 ! R1    R(1,2)                  1.2299         -DE/DX =    0.0001              !
 ! R2    R(1,3)                  1.2299         -DE/DX =    0.0001              !
 ! A1    A(2,1,3)              118.3653         -DE/DX =   -0.0003              !
 --------------------------------------------------------------------------------
 GradGradGradGradGradGradGradGradGradGradGradGradGradGradGradGradGradGrad

                          Input orientation:                          
 ---------------------------------------------------------------------
 Center     Atomic      Atomic             Coordinates (Angstroms)
 Number     Number       Type             X           Y           Z
 ---------------------------------------------------------------------
      1          8           0       -4.003369    0.832743    0.000000
      2          8           0       -4.502308    1.956933    0.000000
      3          8           0       -2.777111    0.737684    0.000000
 ---------------------------------------------------------------------
                    Distance matrix (angstroms):
                    1          2          3
     1  O    0.000000
     2  O    1.229936   0.000000
     3  O    1.229938   2.112551   0.000000
 Symmetry turned off by external request.
 Stoichiometry    O3
 Framework group  CS[SG(O3)]
 Deg. of freedom     3
 Full point group                 CS      NOp   2
 Rotational constants (GHZ):         119.3732168          14.1595913          12.6581324

 **********************************************************************

            Population analysis using the SCF density.

 **********************************************************************

 Alpha  occ. eigenvalues --  -19.95032 -19.75240 -19.75236  -1.54293  -1.24656
 Alpha  occ. eigenvalues --   -0.89294  -0.71167  -0.70983  -0.68887  -0.44247
 Alpha  occ. eigenvalues --   -0.43016  -0.42669
 Alpha virt. eigenvalues --   -0.12885   0.17226   0.24853   0.33300   0.39484
 Alpha virt. eigenvalues --    0.40900   0.43121   0.48203   0.48649   0.50756
 Alpha virt. eigenvalues --    0.51820   0.54130   0.59002   0.73900   0.78232
 Alpha virt. eigenvalues --    1.19576   1.23164   1.23188   1.50264   1.53193
 Alpha virt. eigenvalues --    1.54584   1.58078   1.79419   1.87664   1.98744
 Alpha virt. eigenvalues --    2.01261   2.03372   2.21403   2.22390   2.33466
 Alpha virt. eigenvalues --    2.42425   2.50067   2.63295   2.65047   2.69239
 Alpha virt. eigenvalues --    2.78666   2.84378   2.86337   2.96780   3.04888
 Alpha virt. eigenvalues --    4.12616   4.28995   4.47060   4.48030   4.56048
 Alpha virt. eigenvalues --    4.62222   4.66982   4.74339   4.93622   5.08416
 Alpha virt. eigenvalues --    5.08790   5.09942   5.12206   5.21656   5.46011
 Alpha virt. eigenvalues --    5.49099   5.70593   5.97275   6.07772   6.15216
 Alpha virt. eigenvalues --    6.15437   6.21523   6.26895   6.30818   6.31573
 Alpha virt. eigenvalues --    6.35135   6.38813   6.39727   6.39984   6.56354
 Alpha virt. eigenvalues --    6.89606   7.04386   7.11212   7.22169   7.43630
 Alpha virt. eigenvalues --    7.55973   8.35579   8.76821  43.21564  43.44816
 Alpha virt. eigenvalues --   43.93940
          Condensed to atoms (all electrons):
               1          2          3
     1  O    7.407506   0.131395   0.131361
     2  O    0.131395   8.136807  -0.103343
     3  O    0.131361  -0.103343   8.136861
 Mulliken charges:
               1
     1  O    0.329737
     2  O   -0.164858
     3  O   -0.164879
 Sum of Mulliken charges =  -0.00000
 Mulliken charges with hydrogens summed into heavy atoms:
               1
     1  O    0.329737
     2  O   -0.164858
     3  O   -0.164879
 Electronic spatial extent (au):  <R**2>=           1436.2446
 Charge=             -0.0000 electrons
 Dipole moment (field-independent basis, Debye):
    X=             -0.4349    Y=             -0.6154    Z=              0.0000  Tot=              0.7535
 Quadrupole moment (field-independent basis, Debye-Ang):
   XX=            -13.6146   YY=            -17.8166   ZZ=            -14.5402
   XY=              2.5320   XZ=             -0.0000   YZ=              0.0000
 Traceless Quadrupole moment (field-independent basis, Debye-Ang):
   XX=              1.7092   YY=             -2.4928   ZZ=              0.7836
   XY=              2.5320   XZ=             -0.0000   YZ=              0.0000
 Octapole moment (field-independent basis, Debye-Ang**2):
  XXX=            172.2918  YYY=            -60.6273  ZZZ=              0.0000  XYY=             67.4268
  XXY=            -30.5242  XXZ=              0.0000  XZZ=             54.4984  YZZ=            -17.3594
  YYZ=              0.0000  XYZ=             -0.0000
 Hexadecapole moment (field-independent basis, Debye-Ang**3):
 XXXX=          -1405.7716 YYYY=           -182.0172 ZZZZ=            -10.2248 XXXY=            285.1157
 XXXZ=              0.0000 YYYX=            242.6366 YYYZ=              0.0000 ZZZX=             -0.0000
 ZZZY=              0.0000 XXYY=           -296.7064 XXZZ=           -216.0704 YYZZ=            -29.0644
 XXYZ=              0.0000 YYXZ=             -0.0000 ZZXY=             69.9565
 N-N= 7.110315816997D+01 E-N=-6.743851320428D+02  KE= 2.246297660704D+02
 1\1\GINC-NODE10\FOpt\RM062X\def2TZVP\O3\NXU\29-Aug-2019\0\\# m062x/def
 2tzvp empiricaldispersion=gd3 guess=mix nosymm opt freq\\Title Card Re
 quired\\0,1\O,-4.0033692576,0.8327425369,0.\O,-4.5023078545,1.95693275
 42,0.\O,-2.777110568,0.7376839889,0.\\Version=ES64L-G16RevA.03\HF=-225
 .4081849\RMSD=2.830e-09\RMSF=1.259e-04\Dipole=-0.1711092,-0.2420976,0.
 \Quadrupole=1.2707155,-1.8533382,0.5826227,1.8825078,0.,0.\PG=CS [SG(O
 3)]\\@


 If your ship doesn't come in, swim out to it!
                          -- Jonathan Winters
 Job cpu time:       0 days  0 hours  5 minutes 59.2 seconds.
 Elapsed time:       0 days  0 hours  0 minutes 17.2 seconds.
 File lengths (MBytes):  RWF=     10 Int=      0 D2E=      0 Chk=      2 Scr=      1
 Normal termination of Gaussian 16 at Thu Aug 29 19:06:21 2019.
 Link1:  Proceeding to internal job step number  2.
 --------------------------------------------------------------------
 #N Geom=AllCheck Guess=TCheck SCRF=Check GenChk RM062X/def2TZVP Freq
 --------------------------------------------------------------------
 1/10=4,29=7,30=1,38=1,40=1/1,3;
 2/12=2,15=1,40=1/2;
 3/5=44,7=101,11=2,14=-4,25=1,30=1,70=2,71=2,74=-55,116=1,124=31,140=1/1,2,3;
 4/5=101/1;
 5/5=2,38=6,98=1/2;
 8/6=4,10=90,11=11/1;
 11/6=1,8=1,9=11,15=111,16=1,31=1/1,2,10;
 10/6=1,31=1/2;
 6/7=2,8=2,9=2,10=2,28=1/1;
 7/8=1,10=1,25=1,30=1/1,2,3,16;
 1/10=4,30=1/3;
 99//99;
 Structure from the checkpoint file:  "/tmp/Gau-645577.chk"
 -------------------
 Title Card Required
 -------------------
 Charge =  0 Multiplicity = 1
 Redundant internal coordinates found in file.  (old form).
 O,0,-4.0033692576,0.8327425369,0.
 O,0,-4.5023078545,1.9569327542,0.
 O,0,-2.777110568,0.7376839889,0.
 Recover connectivity data from disk.

 GradGradGradGradGradGradGradGradGradGradGradGradGradGradGradGradGradGrad
 Berny optimization.
 Initialization pass.
                           ----------------------------
                           !    Initial Parameters    !
                           ! (Angstroms and Degrees)  !
 --------------------------                            --------------------------
 ! Name  Definition              Value          Derivative Info.                !
 --------------------------------------------------------------------------------
 ! R1    R(1,2)                  1.2299         calculate D2E/DX2 analytically  !
 ! R2    R(1,3)                  1.2299         calculate D2E/DX2 analytically  !
 ! A1    A(2,1,3)              118.3653         calculate D2E/DX2 analytically  !
 --------------------------------------------------------------------------------
 Trust Radius=3.00D-01 FncErr=1.00D-07 GrdErr=1.00D-07 EigMax=2.50D+02 EigMin=1.00D-04
 Number of steps in this run=      2 maximum allowed number of steps=      2.
 GradGradGradGradGradGradGradGradGradGradGradGradGradGradGradGradGradGrad

                          Input orientation:                          
 ---------------------------------------------------------------------
 Center     Atomic      Atomic             Coordinates (Angstroms)
 Number     Number       Type             X           Y           Z
 ---------------------------------------------------------------------
      1          8           0       -4.003369    0.832743    0.000000
      2          8           0       -4.502308    1.956933    0.000000
      3          8           0       -2.777111    0.737684    0.000000
 ---------------------------------------------------------------------
                    Distance matrix (angstroms):
                    1          2          3
     1  O    0.000000
     2  O    1.229936   0.000000
     3  O    1.229938   2.112551   0.000000
 Symmetry turned off by external request.
 Stoichiometry    O3
 Framework group  CS[SG(O3)]
 Deg. of freedom     3
 Full point group                 CS      NOp   2
 Rotational constants (GHZ):         119.3732168          14.1595913          12.6581324
 Standard basis: def2TZVP (5D, 7F)
    93 basis functions,   153 primitive gaussians,   108 cartesian basis functions
    12 alpha electrons       12 beta electrons
       nuclear repulsion energy        71.1031582365 Hartrees.
 NAtoms=    3 NActive=    3 NUniq=    3 SFac= 1.00D+00 NAtFMM=   60 NAOKFM=F Big=F
 Integral buffers will be    131072 words long.
 Raffenetti 2 integral format.
 Two-electron integral symmetry is turned off.
 Nuclear repulsion after empirical dispersion term =       71.1031581700 Hartrees.
 One-electron integrals computed using PRISM.
   1 Symmetry operations used in ECPInt.
 ECPInt:  NShTT=     561 NPrTT=    1896 LenC2=     557 LenP2D=    1647.
 LDataN:  DoStor=T MaxTD1= 6 Len=  172
 NBasis=    93 RedAO= T EigKep=  1.98D-03  NBF=    93
 NBsUse=    93 1.00D-06 EigRej= -1.00D+00 NBFU=    93
 Initial guess from the checkpoint file:  "/tmp/Gau-645577.chk"
 B after Tr=     0.000000    0.000000    0.000000
         Rot=    1.000000    0.000000    0.000000    0.000000 Ang=   0.00 deg.
 Keep R1 ints in memory in canonical form, NReq=31975627.
 Requested convergence on RMS density matrix=1.00D-08 within 128 cycles.
 Requested convergence on MAX density matrix=1.00D-06.
 Requested convergence on             energy=1.00D-06.
 No special actions if energy rises.
 SCF Done:  E(RM062X) =  -225.408184939     A.U. after    1 cycles
            NFock=  1  Conv=0.46D-09     -V/T= 2.0035
 DoSCS=F DFT=T ScalE2(SS,OS)=  1.000000  1.000000
 Range of M.O.s used for correlation:     1    93
 NBasis=    93 NAE=    12 NBE=    12 NFC=     0 NFV=     0
 NROrb=     93 NOA=    12 NOB=    12 NVA=    81 NVB=    81

 **** Warning!!: The largest alpha MO coefficient is  0.10871999D+02

   1 Symmetry operations used in ECPInt.
 ECPInt:  NShTT=     561 NPrTT=    1896 LenC2=     557 LenP2D=    1647.
 LDataN:  DoStor=T MaxTD1= 7 Len=  274
 Symmetrizing basis deriv contribution to polar:
 IMax=3 JMax=2 DiffMx= 0.00D+00
 G2DrvN: will do     4 centers at a time, making    1 passes.
 Calling FoFCou, ICntrl=  3107 FMM=F I1Cent=   0 AccDes= 0.00D+00.
 End of G2Drv F.D. properties file   721 does not exist.
 End of G2Drv F.D. properties file   722 does not exist.
 End of G2Drv F.D. properties file   788 does not exist.
          IDoAtm=111
          Differentiating once with respect to electric field.
                with respect to dipole field.
          Differentiating once with respect to nuclear coordinates.
 Keep R1 ints in memory in canonical form, NReq=31894412.
          There are    12 degrees of freedom in the 1st order CPHF.  IDoFFX=6 NUNeed=     3.
      9 vectors produced by pass  0 Test12= 8.10D-15 8.33D-09 XBig12= 2.27D+01 4.30D+00.
 AX will form     9 AO Fock derivatives at one time.
      9 vectors produced by pass  1 Test12= 8.10D-15 8.33D-09 XBig12= 1.03D+01 1.27D+00.
      9 vectors produced by pass  2 Test12= 8.10D-15 8.33D-09 XBig12= 2.29D-01 2.67D-01.
      9 vectors produced by pass  3 Test12= 8.10D-15 8.33D-09 XBig12= 4.85D-03 2.60D-02.
      9 vectors produced by pass  4 Test12= 8.10D-15 8.33D-09 XBig12= 3.05D-05 2.16D-03.
      9 vectors produced by pass  5 Test12= 8.10D-15 8.33D-09 XBig12= 2.09D-07 1.88D-04.
      9 vectors produced by pass  6 Test12= 8.10D-15 8.33D-09 XBig12= 6.06D-10 6.92D-06.
      8 vectors produced by pass  7 Test12= 8.10D-15 8.33D-09 XBig12= 2.20D-12 4.03D-07.
      2 vectors produced by pass  8 Test12= 8.10D-15 8.33D-09 XBig12= 6.20D-15 1.88D-08.
 InvSVY:  IOpt=1 It=  1 EMax= 4.44D-16
 Solved reduced A of dimension    73 with     9 vectors.
 Isotropic polarizability for W=    0.000000       15.61 Bohr**3.
 End of Minotr F.D. properties file   721 does not exist.
 End of Minotr F.D. properties file   722 does not exist.
 End of Minotr F.D. properties file   788 does not exist.

 **********************************************************************

            Population analysis using the SCF density.

 **********************************************************************

 Alpha  occ. eigenvalues --  -19.95032 -19.75240 -19.75236  -1.54293  -1.24656
 Alpha  occ. eigenvalues --   -0.89294  -0.71167  -0.70983  -0.68887  -0.44247
 Alpha  occ. eigenvalues --   -0.43016  -0.42669
 Alpha virt. eigenvalues --   -0.12885   0.17226   0.24853   0.33300   0.39484
 Alpha virt. eigenvalues --    0.40900   0.43121   0.48203   0.48649   0.50756
 Alpha virt. eigenvalues --    0.51820   0.54130   0.59002   0.73900   0.78232
 Alpha virt. eigenvalues --    1.19576   1.23164   1.23188   1.50264   1.53193
 Alpha virt. eigenvalues --    1.54584   1.58078   1.79419   1.87664   1.98744
 Alpha virt. eigenvalues --    2.01261   2.03372   2.21403   2.22390   2.33466
 Alpha virt. eigenvalues --    2.42425   2.50067   2.63295   2.65047   2.69239
 Alpha virt. eigenvalues --    2.78666   2.84378   2.86337   2.96780   3.04888
 Alpha virt. eigenvalues --    4.12616   4.28995   4.47060   4.48030   4.56048
 Alpha virt. eigenvalues --    4.62222   4.66982   4.74339   4.93622   5.08416
 Alpha virt. eigenvalues --    5.08790   5.09942   5.12206   5.21656   5.46011
 Alpha virt. eigenvalues --    5.49099   5.70593   5.97275   6.07772   6.15216
 Alpha virt. eigenvalues --    6.15437   6.21523   6.26895   6.30818   6.31573
 Alpha virt. eigenvalues --    6.35135   6.38813   6.39727   6.39984   6.56354
 Alpha virt. eigenvalues --    6.89606   7.04386   7.11212   7.22169   7.43630
 Alpha virt. eigenvalues --    7.55973   8.35579   8.76821  43.21564  43.44816
 Alpha virt. eigenvalues --   43.93940
          Condensed to atoms (all electrons):
               1          2          3
     1  O    7.407506   0.131395   0.131361
     2  O    0.131395   8.136807  -0.103343
     3  O    0.131361  -0.103343   8.136861
 Mulliken charges:
               1
     1  O    0.329737
     2  O   -0.164858
     3  O   -0.164879
 Sum of Mulliken charges =  -0.00000
 Mulliken charges with hydrogens summed into heavy atoms:
               1
     1  O    0.329737
     2  O   -0.164858
     3  O   -0.164879
 APT charges:
               1
     1  O    0.768752
     2  O   -0.384405
     3  O   -0.384347
 Sum of APT charges =  -0.00000
 APT charges with hydrogens summed into heavy atoms:
               1
     1  O    0.768752
     2  O   -0.384405
     3  O   -0.384347
 Electronic spatial extent (au):  <R**2>=           1436.2446
 Charge=             -0.0000 electrons
 Dipole moment (field-independent basis, Debye):
    X=             -0.4349    Y=             -0.6154    Z=              0.0000  Tot=              0.7535
 Quadrupole moment (field-independent basis, Debye-Ang):
   XX=            -13.6146   YY=            -17.8166   ZZ=            -14.5402
   XY=              2.5320   XZ=             -0.0000   YZ=              0.0000
 Traceless Quadrupole moment (field-independent basis, Debye-Ang):
   XX=              1.7092   YY=             -2.4928   ZZ=              0.7836
   XY=              2.5320   XZ=             -0.0000   YZ=              0.0000
 Octapole moment (field-independent basis, Debye-Ang**2):
  XXX=            172.2918  YYY=            -60.6273  ZZZ=              0.0000  XYY=             67.4268
  XXY=            -30.5242  XXZ=              0.0000  XZZ=             54.4984  YZZ=            -17.3594
  YYZ=              0.0000  XYZ=             -0.0000
 Hexadecapole moment (field-independent basis, Debye-Ang**3):
 XXXX=          -1405.7716 YYYY=           -182.0172 ZZZZ=            -10.2248 XXXY=            285.1157
 XXXZ=             -0.0000 YYYX=            242.6366 YYYZ=              0.0000 ZZZX=             -0.0000
 ZZZY=              0.0000 XXYY=           -296.7064 XXZZ=           -216.0704 YYZZ=            -29.0644
 XXYZ=              0.0000 YYXZ=             -0.0000 ZZXY=             69.9565
 N-N= 7.110315816997D+01 E-N=-6.743851319760D+02  KE= 2.246297660712D+02
  Exact polarizability:  22.521  -8.803  16.285  -0.000   0.000   8.012
 Approx polarizability:  37.201 -17.641  24.707   0.000  -0.000   9.645
   1 Symmetry operations used in ECPInt.
 ECPInt:  NShTT=     561 NPrTT=    1896 LenC2=     557 LenP2D=    1647.
 LDataN:  DoStor=T MaxTD1= 8 Len=  415
 Calling FoFJK, ICntrl=    100127 FMM=F ISym2X=0 I1Cent= 0 IOpClX= 0 NMat=1 NMatS=1 NMatT=0.
 Full mass-weighted force constant matrix:
 Low frequencies ---  -33.4120  -13.3666  -10.6080   -0.0011   -0.0009   -0.0005
 Low frequencies ---  794.2529 1374.1263 1375.1375
 Diagonal vibrational polarizability:
        3.3296778       1.8555774       0.0000000
 Harmonic frequencies (cm**-1), IR intensities (KM/Mole), Raman scattering
 activities (A**4/AMU), depolarization ratios for plane and unpolarized
 incident light, reduced masses (AMU), force constants (mDyne/A),
 and normal coordinates:
                      1                      2                      3
                      A                      A                      A
 Frequencies --    794.2529              1374.1263              1375.1375
 Red. masses --     15.9949                15.9949                15.9949
 Frc consts  --      5.9450                17.7945                17.8207
 IR Inten    --      8.8107               337.0736                 0.3780
  Atom  AN      X      Y      Z        X      Y      Z        X      Y      Z
     1   8    -0.28  -0.39   0.00     0.62  -0.46   0.00    -0.40  -0.53  -0.00
     2   8     0.61  -0.14   0.00    -0.19   0.42   0.00    -0.14   0.50  -0.00
     3   8    -0.33   0.53   0.00    -0.43   0.04   0.00     0.54   0.03  -0.00

 -------------------
 - Thermochemistry -
 -------------------
 Temperature   298.150 Kelvin.  Pressure   1.00000 Atm.
 Atom     1 has atomic number  8 and mass  15.99491
 Atom     2 has atomic number  8 and mass  15.99491
 Atom     3 has atomic number  8 and mass  15.99491
 Molecular mass:    47.98474 amu.
 Principal axes and moments of inertia in atomic units:
                           1         2         3
     Eigenvalues --    15.11848 127.45715 142.57563
           X            0.81664   0.57715   0.00000
           Y           -0.57715   0.81664   0.00000
           Z           -0.00000   0.00000   1.00000
 This molecule is an asymmetric top.
 Rotational symmetry number  1.
 Rotational temperatures (Kelvin)      5.72901     0.67955     0.60749
 Rotational constants (GHZ):         119.37322    14.15959    12.65813
 Zero-point vibrational energy      21194.9 (Joules/Mol)
                                    5.06571 (Kcal/Mol)
 Vibrational temperatures:   1142.75  1977.06  1978.52
          (Kelvin)
 
 Zero-point correction=                           0.008073 (Hartree/Particle)
 Thermal correction to Energy=                    0.011002
 Thermal correction to Enthalpy=                  0.011946
 Thermal correction to Gibbs Free Energy=        -0.015625
 Sum of electronic and zero-point Energies=           -225.400112
 Sum of electronic and thermal Energies=              -225.397183
 Sum of electronic and thermal Enthalpies=            -225.396239
 Sum of electronic and thermal Free Energies=         -225.423810
 
                     E (Thermal)             CV                S
                      KCal/Mol        Cal/Mol-Kelvin    Cal/Mol-Kelvin
 Total                    6.904              6.853             58.028
 Electronic               0.000              0.000              0.000
 Translational            0.889              2.981             37.529
 Rotational               0.889              2.981             20.246
 Vibrational              5.126              0.891              0.252
                       Q            Log10(Q)             Ln(Q)
 Total Bot       0.153769D+08          7.186869         16.548378
 Total V=0       0.794441D+11         10.900062         25.098319
 Vib (Bot)       0.198361D-03         -3.702544         -8.525422
 Vib (V=0)       0.102482D+01          0.010649          0.024519
 Electronic      0.100000D+01          0.000000          0.000000
 Translational   0.130650D+08          7.116109         16.385446
 Rotational      0.593341D+04          3.773304          8.688354
 -------------------------------------------------------------------
 Center     Atomic                   Forces (Hartrees/Bohr)
 Number     Number              X              Y              Z
 -------------------------------------------------------------------
      1        8          -0.000175453   -0.000252215    0.000000000
      2        8           0.000069022    0.000138139   -0.000000000
      3        8           0.000106430    0.000114076   -0.000000000
 -------------------------------------------------------------------
 Cartesian Forces:  Max     0.000252215 RMS     0.000125867
 FormGI is forming the generalized inverse of G from B-inverse, IUseBI=4.

 GradGradGradGradGradGradGradGradGradGradGradGradGradGradGradGradGradGrad
 Berny optimization.
 Internal  Forces:  Max     0.000280172 RMS     0.000180388
 Search for a local minimum.
 Step number   1 out of a maximum of    2
 All quantities printed in internal units (Hartrees-Bohrs-Radians)
 Second derivative matrix not updated -- analytic derivatives used.
 The second derivative matrix:
                          R1        R2        A1
           R1           0.59875
           R2           0.13694   0.59878
           A1           0.06310   0.06308   0.54580
 ITU=  0
     Eigenvalues ---    0.46182   0.51046   0.77105
 Angle between quadratic step and forces=   1.57 degrees.
 Linear search not attempted -- first point.
 Iteration  1 RMS(Cart)=  0.00033671 RMS(Int)=  0.00000008
 Iteration  2 RMS(Cart)=  0.00000009 RMS(Int)=  0.00000000
 Variable       Old X    -DE/DX   Delta X   Delta X   Delta X     New X
                                 (Linear)    (Quad)   (Total)
    R1        2.32424   0.00010   0.00000   0.00018   0.00018   2.32443
    R2        2.32425   0.00010   0.00000   0.00018   0.00018   2.32442
    A1        2.06586  -0.00028   0.00000  -0.00056  -0.00056   2.06531
         Item               Value     Threshold  Converged?
 Maximum Force            0.000280     0.000450     YES
 RMS     Force            0.000180     0.000300     YES
 Maximum Displacement     0.000353     0.001800     YES
 RMS     Displacement     0.000337     0.001200     YES
 Predicted change in Energy=-9.540626D-08
 Optimization completed.
    -- Stationary point found.
                           ----------------------------
                           !   Optimized Parameters   !
                           ! (Angstroms and Degrees)  !
 --------------------------                            --------------------------
 ! Name  Definition              Value          Derivative Info.                !
 --------------------------------------------------------------------------------
 ! R1    R(1,2)                  1.2299         -DE/DX =    0.0001              !
 ! R2    R(1,3)                  1.2299         -DE/DX =    0.0001              !
 ! A1    A(2,1,3)              118.3653         -DE/DX =   -0.0003              !
 --------------------------------------------------------------------------------
 GradGradGradGradGradGradGradGradGradGradGradGradGradGradGradGradGradGrad


 ----------------------------------------------------------------------

 Electric dipole moment (input orientation):
 (Debye = 10**-18 statcoulomb cm , SI units = C m)
                  (au)            (Debye)         (10**-30 SI)
   Tot        0.296462D+00      0.753531D+00      0.251351D+01
   x         -0.171109D+00     -0.434916D+00     -0.145072D+01
   y         -0.242098D+00     -0.615351D+00     -0.205259D+01
   z          0.000000D+00      0.000000D+00      0.000000D+00

 Dipole polarizability, Alpha (input orientation).
 (esu units = cm**3 , SI units = C**2 m**2 J**-1)
 Alpha(0;0):
               (au)            (10**-24 esu)      (10**-40 SI)
   iso        0.156058D+02      0.231253D+01      0.257304D+01
   aniso      0.197843D+02      0.293173D+01      0.326198D+01
   xx         0.225211D+02      0.333728D+01      0.371322D+01
   yx        -0.880315D+01     -0.130449D+01     -0.145144D+01
   yy         0.162846D+02      0.241313D+01      0.268497D+01
   zx         0.000000D+00      0.000000D+00      0.000000D+00
   zy         0.000000D+00      0.000000D+00      0.000000D+00
   zz         0.801158D+01      0.118719D+01      0.132093D+01

 ----------------------------------------------------------------------

 Dipole orientation:
     8         -5.78679082          4.08997666          3.08137412
     8         -7.41685912          5.24207313          1.89072064
     8         -4.15678247          2.93792256          1.89059289

 Electric dipole moment (dipole orientation):
 (Debye = 10**-18 statcoulomb cm , SI units = C m)
                  (au)            (Debye)         (10**-30 SI)
   Tot        0.296462D+00      0.753531D+00      0.251351D+01
   x          0.000000D+00      0.000000D+00      0.000000D+00
   y          0.000000D+00      0.000000D+00      0.000000D+00
   z          0.296462D+00      0.753531D+00      0.251351D+01

 Dipole polarizability, Alpha (dipole orientation).
 (esu units = cm**3 , SI units = C**2 m**2 J**-1)
 Alpha(0;0):
               (au)            (10**-24 esu)      (10**-40 SI)
   iso        0.156058D+02      0.231253D+01      0.257304D+01
   aniso      0.197843D+02      0.293173D+01      0.326198D+01
   xx         0.218361D+02      0.323578D+01      0.360029D+01
   yx        -0.977087D+01     -0.144789D+01     -0.161100D+01
   yy         0.149174D+02      0.221053D+01      0.245955D+01
   zx        -0.114858D-02     -0.170202D-03     -0.189375D-03
   zy         0.811790D-03      0.120295D-03      0.133846D-03
   zz         0.100637D+02      0.149129D+01      0.165929D+01

 ----------------------------------------------------------------------
 1\1\GINC-NODE10\Freq\RM062X\def2TZVP\O3\NXU\29-Aug-2019\0\\#N Geom=All
 Check Guess=TCheck SCRF=Check GenChk RM062X/def2TZVP Freq\\Title Card 
 Required\\0,1\O,-4.0033692576,0.8327425369,0.\O,-4.5023078545,1.956932
 7542,0.\O,-2.777110568,0.7376839889,0.\\Version=ES64L-G16RevA.03\HF=-2
 25.4081849\RMSD=4.585e-10\RMSF=1.259e-04\ZeroPoint=0.0080727\Thermal=0
 .0110019\Dipole=-0.1711093,-0.2420976,0.\DipoleDeriv=1.2996703,-0.7671
 264,0.,-0.7677337,0.7576871,0.,0.,0.,0.2488987,-0.5188113,0.0934823,0.
 ,0.7662007,-0.5099268,0.,0.,0.,-0.1244762,-0.780859,0.6736441,0.,0.001
 533,-0.2477603,0.,0.,0.,-0.1244225\Polar=22.5210599,-8.8031519,16.2846
 227,0.,0.,8.011581\Quadrupole=1.270716,-1.8533386,0.5826226,1.8825081,
 0.,0.\PG=CS [SG(O3)]\NImag=0\\0.65040704,-0.04358835,0.61955108,0.,0.,
 -0.00045032,-0.13091470,0.09358707,0.,0.20303543,0.08767594,-0.5039764
 4,0.,-0.20281932,0.49655765,0.,0.,0.00023245,0.,0.,-0.00015406,-0.5194
 9233,-0.04999872,0.,-0.07212073,0.11514339,0.,0.59161307,-0.04408759,-
 0.11557463,0.,0.10923225,0.00741879,0.,-0.06514466,0.10815584,0.,0.,0.
 00021787,0.,0.,-0.00007839,0.,0.,-0.00013948\\0.00017545,0.00025221,0.
 ,-0.00006902,-0.00013814,0.,-0.00010643,-0.00011408,0.\\\@


 Everywhere is walking distance if you have the time.
                                    -- Steven Wright
 Job cpu time:       0 days  0 hours  3 minutes 14.3 seconds.
 Elapsed time:       0 days  0 hours  0 minutes  8.5 seconds.
 File lengths (MBytes):  RWF=     10 Int=      0 D2E=      0 Chk=      2 Scr=      1
 Normal termination of Gaussian 16 at Thu Aug 29 19:06:29 2019.

g16 job started: Thu Aug 29 19:06:03 CST 2019
g16 job finished: Thu Aug 29 19:06:29 CST 2019
Elapsed time: 26
